 Gaussian 16, Revision B.01,
 Gaussian 16:  ES64L-G16RevB.01 20-Dec-2017

 ----------------------------------------------------------------------
 # opt=modredundant UHF/6-31G* SCF=(MaxCycle=1000) Geom=PrintInputOrien
 t
 ----------------------------------------------------------------------

 ---------------------------
 Dihedral Scan at UHF/6-31G*
 ---------------------------
 Symbolic Z-matrix:
 Charge =  0 Multiplicity = 1

 SCF Done:  E(UHF) =  -79.1917277257     A.U. after    9 cycles
 SCF Done:  E(UHF) =  -79.2260331794     A.U. after    9 cycles
 SCF Done:  E(UHF) =  -79.2287284586     A.U. after    8 cycles
 SCF Done:  E(UHF) =  -79.2287536536     A.U. after    7 cycles
 SCF Done:  E(UHF) =  -79.2287549895     A.U. after    6 cycles
 Optimization completed.
    -- Stationary point found.
 SCF Done:  E(UHF) =  -79.2272813833     A.U. after    9 cycles
 SCF Done:  E(UHF) =  -79.2283603747     A.U. after    9 cycles
 SCF Done:  E(UHF) =  -79.2284584810     A.U. after    8 cycles
 Optimization completed.
 SCF Done:  E(UHF) =  -79.2264053245     A.U. after    9 cycles
 SCF Done:  E(UHF) =  -79.2276091013     A.U. after    9 cycles
 SCF Done:  E(UHF) =  -79.2264709151     A.U. after    8 cycles
 SCF Done:  E(UHF) =  -79.2262369386     A.U. after    9 cycles
 SCF Done:  E(UHF) =  -79.2276185916     A.U. after    9 cycles
 SCF Done:  E(UHF) =  -79.2276351404     A.U. after    8 cycles
 SCF Done:  E(UHF) =  -79.2271953657     A.U. after    9 cycles
 SCF Done:  E(UHF) =  -79.2284459091     A.U. after    9 cycles
 SCF Done:  E(UHF) =  -79.2284591083     A.U. after    8 cycles
    -- Stationary point found.
 SCF Done:  E(UHF) =  -79.2275665108     A.U. after    9 cycles
 SCF Done:  E(UHF) =  -79.2287406647     A.U. after    9 cycles
 SCF Done:  E(UHF) =  -79.2287549865     A.U. after    8 cycles
 Optimization completed.
    -- Stationary point found.

                         Standard orientation:
 ---------------------------------------------------------------------
 Center     Atomic      Atomic             Coordinates (Angstroms)
 Number     Number       Type             X           Y           Z
 ---------------------------------------------------------------------
      1          6           0        0.000000    0.763665   -0.000006
      2          6           0       -0.000000   -0.763665   -0.000006
      3          1           0       -1.012181    1.156071   -0.000004
      4          1           0        0.505895    1.156447    0.876552
      5          1           0        0.505848    1.156531   -0.876509
      6          1           0        1.012181   -1.156071   -0.000004
      7          1           0       -0.505895   -1.156447    0.876552
      8          1           0       -0.505848   -1.156531   -0.876509
 ---------------------------------------------------------------------

 The electronic state is 1-A.
 Alpha  occ. eigenvalues --  -11.21018 -11.20959  -1.01876  -0.84359  -0.59790
 Alpha  occ. eigenvalues --   -0.59789  -0.50923  -0.48796  -0.48792
 Alpha virt. eigenvalues --    0.24297   0.30273   0.31802   0.31805   0.33905
 Alpha virt. eigenvalues --    0.33909   0.41308   0.70717   0.73876   0.73879
 Alpha virt. eigenvalues --    0.84682   0.84701   0.94353   1.15948   1.15949

  Beta  occ. eigenvalues --  -11.21018 -11.20959  -1.01876  -0.84359  -0.59790
  Beta  occ. eigenvalues --   -0.59789  -0.50923  -0.48796  -0.48792
  Beta virt. eigenvalues --    0.24297   0.30273   0.31802   0.31805   0.33905
  Beta virt. eigenvalues --    0.33909   0.41308   0.70717   0.73876   0.73879
  Beta virt. eigenvalues --    0.84682   0.84701   0.94353   1.15948   1.15949

 Mulliken charges and spin densities:
               1          2
     1  C   -0.475587   0.000000
     2  C   -0.475587   0.000000
     3  H    0.158514   0.000000
     4  H    0.158531   0.000000
     5  H    0.158541   0.000000
     6  H    0.158514   0.000000
     7  H    0.158531   0.000000
     8  H    0.158541   0.000000
 Sum of Mulliken charges =   0.00000   0.00000

 Dipole moment (field-independent basis, Debye):
    X=              0.0000    Y=             -0.0000    Z=             -0.0001  Tot=              0.0001
 Quadrupole moment (field-independent basis, Debye-Ang):
   XX=            -14.9155   YY=            -15.5385   ZZ=            -14.9144
   XY=              0.0008   XZ=             -0.0000   YZ=              0.0000

 Normal termination of Gaussian 16 at Fri Jan 20 15:29:46 2023.
