 Gaussian 16, Revision B.01,
 Gaussian 16:  ES64L-G16RevB.01 20-Dec-2017

 ----------------------------------------------------------------------
 # opt=modredundant UHF/6-31G* SCF=(MaxCycle=1000) Geom=PrintInputOrien
 t
 ----------------------------------------------------------------------

 ---------------------------
 Dihedral Scan at UHF/6-31G*
 ---------------------------
 Symbolic Z-matrix:
 Charge =  0 Multiplicity = 1

 SCF Done:  E(UHF) =  -266.722996610     A.U. after   14 cycles
 SCF Done:  E(UHF) =  -266.801443816     A.U. after   13 cycles
 SCF Done:  E(UHF) =  -266.818259841     A.U. after   13 cycles
 SCF Done:  E(UHF) =  -266.836101098     A.U. after   12 cycles
 SCF Done:  E(UHF) =  -266.838038534     A.U. after   12 cycles
 SCF Done:  E(UHF) =  -266.838402068     A.U. after   10 cycles
 SCF Done:  E(UHF) =  -266.838409653     A.U. after    8 cycles
 SCF Done:  E(UHF) =  -266.838410009     A.U. after    8 cycles
 Optimization completed.
    -- Stationary point found.
 SCF Done:  E(UHF) =  -266.837111624     A.U. after   12 cycles
 SCF Done:  E(UHF) =  -266.837124360     A.U. after   13 cycles
 Optimization completed.
 SCF Done:  E(UHF) =  -266.842560544     A.U. after   12 cycles
 SCF Done:  E(UHF) =  -266.843979282     A.U. after   12 cycles
 SCF Done:  E(UHF) =  -266.843993753     A.U. after   10 cycles
 SCF Done:  E(UHF) =  -266.843993903     A.U. after    7 cycles
 SCF Done:  E(UHF) =  -266.842388584     A.U. after   12 cycles
 SCF Done:  E(UHF) =  -266.843789610     A.U. after   12 cycles
 SCF Done:  E(UHF) =  -266.843802982     A.U. after   10 cycles
    -- Stationary point found.
 SCF Done:  E(UHF) =  -266.842330583     A.U. after   12 cycles
 SCF Done:  E(UHF) =  -266.843718343     A.U. after   11 cycles
 SCF Done:  E(UHF) =  -266.843733993     A.U. after   10 cycles
 Optimization completed.
    -- Stationary point found.

                         Standard orientation:
 ---------------------------------------------------------------------
 Center     Atomic      Atomic             Coordinates (Angstroms)
 Number     Number       Type             X           Y           Z
 ---------------------------------------------------------------------
      1          6           0       -0.655241   -0.099286   -0.000093
      2          6           0        0.703089   -0.762182   -0.000026
      3          6           0        1.913274    0.167282    0.000069
      4          8           0       -1.682590   -0.697136    0.000073
      5          8           0       -0.612336    1.229493   -0.000063
      6          1           0        0.715438   -1.417108    0.865199
      7          1           0        0.715303   -1.416896   -0.865428
      8          1           0        1.923560    0.804540    0.876024
      9          1           0        2.825263   -0.419950   -0.000915
     10          1           0        1.922538    0.805812   -0.875027
     11          1           0       -1.509426    1.549853    0.000366
 ---------------------------------------------------------------------

 The electronic state is 1-A.
 Alpha  occ. eigenvalues --  -20.61664 -20.54749 -11.38243 -11.24463 -11.22430
 Alpha  occ. eigenvalues --   -1.47680  -1.36516  -1.06616  -0.90890  -0.82427
 Alpha  occ. eigenvalues --   -0.70175  -0.67279  -0.66254  -0.59538  -0.58626
 Alpha  occ. eigenvalues --   -0.55465  -0.52321  -0.51760  -0.46982  -0.43995
 Alpha virt. eigenvalues --    0.19279   0.21967   0.25477   0.29353   0.30592
 Alpha virt. eigenvalues --    0.31385   0.35297   0.39152   0.43298   0.48433
 Alpha virt. eigenvalues --    0.55610   0.72287   0.74476   0.75805   0.77969

  Beta  occ. eigenvalues --  -20.61664 -20.54749 -11.38243 -11.24463 -11.22430
  Beta  occ. eigenvalues --   -1.47680  -1.36516  -1.06616  -0.90890  -0.82427
  Beta  occ. eigenvalues --   -0.70175  -0.67279  -0.66254  -0.59538  -0.58626
  Beta  occ. eigenvalues --   -0.55465  -0.52321  -0.51760  -0.46982  -0.43995
  Beta virt. eigenvalues --    0.19279   0.21967   0.25477   0.29353   0.30592
  Beta virt. eigenvalues --    0.31385   0.35297   0.39152   0.43298   0.48433
  Beta virt. eigenvalues --    0.55610   0.72287   0.74476   0.75805   0.77969

 Mulliken charges and spin densities:
               1          2
     1  C    0.752873   0.000000
     2  C   -0.423657   0.000000
     3  C   -0.479408   0.000000
     4  O   -0.564051   0.000000
     5  O   -0.696611   0.000000
     6  H    0.209459   0.000000
     7  H    0.209436   0.000000
     8  H    0.178631   0.000000
     9  H    0.168976   0.000000
    10  H    0.178652   0.000000
    11  H    0.465701   0.000000
 Sum of Mulliken charges =  -0.00000   0.00000

 Dipole moment (field-independent basis, Debye):
    X=              1.5784    Y=              0.9998    Z=              0.0004  Tot=              1.8684
 Quadrupole moment (field-independent basis, Debye-Ang):
   XX=            -32.1228   YY=            -30.1481   ZZ=            -29.1955
   XY=             -6.2864   XZ=             -0.0007   YZ=              0.0016

 Normal termination of Gaussian 16 at Mon Dec 26 16:45:35 2022.
